<?xml version="1.0" encoding="UTF-8"?>

<!-- generated on 2022-03-24 17:12:01 by Eclipse SUMO sumo Version 1.10.0
<configuration xmlns:xsi="http://www.w3.org/2001/XMLSchema-instance" xsi:noNamespaceSchemaLocation="http://sumo.dlr.de/xsd/sumoConfiguration.xsd">

    <input>
        <net-file value="sumo_data/road.net.xml"/>
        <route-files value="sumo_data/road.rou.xml"/>
    </input>

    <output>
        <tripinfo-output value="sumo_result/tripinfo.xml"/>
    </output>

    <time>
        <begin value="0"/>
        <step-length value="0.1"/>
    </time>

    <report>
        <verbose value="true"/>
        <no-step-log value="true"/>
    </report>

    <traci_server>
        <remote-port value="49818"/>
    </traci_server>

    <gui_only>
        <tracker-interval value="0.1"/>
    </gui_only>

</configuration>
-->

<tripinfos xmlns:xsi="http://www.w3.org/2001/XMLSchema-instance" xsi:noNamespaceSchemaLocation="http://sumo.dlr.de/xsd/tripinfo_file.xsd">
    <tripinfo id="car_0" depart="0.70" departLane="right1_0" departPos="0.11" departSpeed="0.00" departDelay="0.00" arrival="21.10" arrivalLane="right2_0" arrivalPos="10.00" arrivalSpeed="14.72" duration="20.40" routeLength="399.89" waitingTime="0.00" waitingCount="0" stopTime="0.00" timeLoss="0.05" rerouteNo="0" devices="tripinfo_car_0" vType="typecar" speedFactor="1.06" vaporized=""/>
    <tripinfo id="car_1" depart="1.60" departLane="right1_0" departPos="0.11" departSpeed="0.00" departDelay="0.00" arrival="23.40" arrivalLane="right2_0" arrivalPos="10.00" arrivalSpeed="13.03" duration="21.80" routeLength="399.89" waitingTime="0.00" waitingCount="0" stopTime="0.00" timeLoss="0.03" rerouteNo="0" devices="tripinfo_car_1" vType="typecar" speedFactor="0.94" vaporized=""/>
    <tripinfo id="car_2" depart="9.30" departLane="right1_0" departPos="0.11" departSpeed="0.00" departDelay="0.00" arrival="29.80" arrivalLane="right2_0" arrivalPos="10.00" arrivalSpeed="14.03" duration="20.50" routeLength="399.89" waitingTime="0.00" waitingCount="0" stopTime="0.00" timeLoss="0.03" rerouteNo="0" devices="tripinfo_car_2" vType="typecar" speedFactor="1.01" vaporized=""/>
    <tripinfo id="car_3" depart="15.30" departLane="right1_0" departPos="0.11" departSpeed="0.00" departDelay="0.00" arrival="35.70" arrivalLane="right2_0" arrivalPos="10.00" arrivalSpeed="15.04" duration="20.40" routeLength="399.89" waitingTime="0.00" waitingCount="0" stopTime="0.00" timeLoss="0.03" rerouteNo="0" devices="tripinfo_car_3" vType="typecar" speedFactor="1.08" vaporized=""/>
    <tripinfo id="car_4" depart="25.80" departLane="right1_0" departPos="0.11" departSpeed="0.00" departDelay="0.00" arrival="46.20" arrivalLane="right2_0" arrivalPos="10.00" arrivalSpeed="14.31" duration="20.40" routeLength="399.89" waitingTime="0.00" waitingCount="0" stopTime="0.00" timeLoss="0.04" rerouteNo="0" devices="tripinfo_car_4" vType="typecar" speedFactor="1.03" vaporized=""/>
    <tripinfo id="car_5" depart="32.90" departLane="right1_0" departPos="0.11" departSpeed="0.00" departDelay="0.00" arrival="57.60" arrivalLane="right2_0" arrivalPos="10.00" arrivalSpeed="11.54" duration="24.70" routeLength="399.89" waitingTime="0.00" waitingCount="0" stopTime="0.00" timeLoss="0.03" rerouteNo="0" devices="tripinfo_car_5" vType="typecar" speedFactor="0.83" vaporized=""/>
    <tripinfo id="car_6" depart="45.60" departLane="right1_0" departPos="0.11" departSpeed="0.00" departDelay="0.00" arrival="66.00" arrivalLane="right2_0" arrivalPos="10.00" arrivalSpeed="14.53" duration="20.40" routeLength="399.89" waitingTime="0.00" waitingCount="0" stopTime="0.00" timeLoss="0.04" rerouteNo="0" devices="tripinfo_car_6" vType="typecar" speedFactor="1.05" vaporized=""/>
    <tripinfo id="car_7" depart="55.40" departLane="right1_0" departPos="0.11" departSpeed="0.00" departDelay="0.00" arrival="78.60" arrivalLane="right2_0" arrivalPos="10.00" arrivalSpeed="12.31" duration="23.20" routeLength="399.89" waitingTime="0.00" waitingCount="0" stopTime="0.00" timeLoss="0.05" rerouteNo="0" devices="tripinfo_car_7" vType="typecar" speedFactor="0.89" vaporized=""/>
    <tripinfo id="car_8" depart="58.60" departLane="right1_0" departPos="0.11" departSpeed="0.00" departDelay="0.00" arrival="80.50" arrivalLane="right2_0" arrivalPos="10.00" arrivalSpeed="13.03" duration="21.90" routeLength="399.89" waitingTime="0.00" waitingCount="0" stopTime="0.00" timeLoss="0.03" rerouteNo="0" devices="tripinfo_car_8" vType="typecar" speedFactor="0.94" vaporized=""/>
    <tripinfo id="car_9" depart="62.60" departLane="right1_0" departPos="0.11" departSpeed="0.00" departDelay="0.00" arrival="86.50" arrivalLane="right2_0" arrivalPos="10.00" arrivalSpeed="11.90" duration="23.90" routeLength="399.89" waitingTime="0.00" waitingCount="0" stopTime="0.00" timeLoss="0.03" rerouteNo="0" devices="tripinfo_car_9" vType="typecar" speedFactor="0.86" vaporized=""/>
    <tripinfo id="car_10" depart="74.30" departLane="right1_0" departPos="0.11" departSpeed="0.00" departDelay="0.00" arrival="94.70" arrivalLane="right2_0" arrivalPos="10.00" arrivalSpeed="15.15" duration="20.40" routeLength="399.89" waitingTime="0.00" waitingCount="0" stopTime="0.00" timeLoss="0.02" rerouteNo="0" devices="tripinfo_car_10" vType="typecar" speedFactor="1.09" vaporized=""/>
    <tripinfo id="car_11" depart="75.50" departLane="right1_0" departPos="0.11" departSpeed="0.00" departDelay="0.00" arrival="95.90" arrivalLane="right2_0" arrivalPos="10.00" arrivalSpeed="14.26" duration="20.40" routeLength="399.89" waitingTime="0.00" waitingCount="0" stopTime="0.00" timeLoss="0.03" rerouteNo="0" devices="tripinfo_car_11" vType="typecar" speedFactor="1.03" vaporized=""/>
    <tripinfo id="car_12" depart="77.40" departLane="right1_0" departPos="0.11" departSpeed="0.00" departDelay="0.00" arrival="97.80" arrivalLane="right2_0" arrivalPos="10.00" arrivalSpeed="14.54" duration="20.40" routeLength="399.89" waitingTime="0.00" waitingCount="0" stopTime="0.00" timeLoss="0.04" rerouteNo="0" devices="tripinfo_car_12" vType="typecar" speedFactor="1.05" vaporized=""/>
    <tripinfo id="car_13" depart="82.80" departLane="right1_0" departPos="0.11" departSpeed="0.00" departDelay="0.00" arrival="103.10" arrivalLane="right2_0" arrivalPos="10.00" arrivalSpeed="15.60" duration="20.30" routeLength="399.89" waitingTime="0.00" waitingCount="0" stopTime="0.00" timeLoss="0.02" rerouteNo="0" devices="tripinfo_car_13" vType="typecar" speedFactor="1.12" vaporized=""/>
    <tripinfo id="car_14" depart="95.20" departLane="right1_0" departPos="0.11" departSpeed="0.00" departDelay="0.00" arrival="115.90" arrivalLane="right2_0" arrivalPos="10.00" arrivalSpeed="13.77" duration="20.70" routeLength="399.89" waitingTime="0.00" waitingCount="0" stopTime="0.00" timeLoss="0.03" rerouteNo="0" devices="tripinfo_car_14" vType="typecar" speedFactor="0.99" vaporized=""/>
    <tripinfo id="car_15" depart="96.10" departLane="right1_0" departPos="0.11" departSpeed="0.00" departDelay="0.00" arrival="118.20" arrivalLane="right2_0" arrivalPos="10.00" arrivalSpeed="12.87" duration="22.10" routeLength="399.89" waitingTime="0.00" waitingCount="0" stopTime="0.00" timeLoss="0.05" rerouteNo="0" devices="tripinfo_car_15" vType="typecar" speedFactor="0.93" vaporized=""/>
    <tripinfo id="car_16" depart="105.80" departLane="right1_0" departPos="0.11" departSpeed="0.00" departDelay="0.00" arrival="129.20" arrivalLane="right2_0" arrivalPos="10.00" arrivalSpeed="12.20" duration="23.40" routeLength="399.89" waitingTime="0.00" waitingCount="0" stopTime="0.00" timeLoss="0.03" rerouteNo="0" devices="tripinfo_car_16" vType="typecar" speedFactor="0.88" vaporized=""/>
    <tripinfo id="car_17" depart="106.40" departLane="right1_0" departPos="0.11" departSpeed="0.00" departDelay="0.00" arrival="130.20" arrivalLane="right2_0" arrivalPos="10.00" arrivalSpeed="13.08" duration="23.80" routeLength="399.89" waitingTime="0.00" waitingCount="0" stopTime="0.00" timeLoss="2.05" rerouteNo="0" devices="tripinfo_car_17" vType="typecar" speedFactor="0.94" vaporized=""/>
    <tripinfo id="car_18" depart="110.00" departLane="right1_0" departPos="0.11" departSpeed="0.00" departDelay="0.00" arrival="131.90" arrivalLane="right2_0" arrivalPos="10.00" arrivalSpeed="13.00" duration="21.90" routeLength="399.89" waitingTime="0.00" waitingCount="0" stopTime="0.00" timeLoss="0.03" rerouteNo="0" devices="tripinfo_car_18" vType="typecar" speedFactor="0.94" vaporized=""/>
    <tripinfo id="car_19" depart="114.20" departLane="right1_0" departPos="0.11" departSpeed="0.00" departDelay="0.00" arrival="134.50" arrivalLane="right2_0" arrivalPos="10.00" arrivalSpeed="16.09" duration="20.30" routeLength="399.89" waitingTime="0.00" waitingCount="0" stopTime="0.00" timeLoss="0.02" rerouteNo="0" devices="tripinfo_car_19" vType="typecar" speedFactor="1.16" vaporized=""/>
    <tripinfo id="car_20" depart="117.10" departLane="right1_0" departPos="0.11" departSpeed="0.00" departDelay="0.00" arrival="137.60" arrivalLane="right2_0" arrivalPos="10.00" arrivalSpeed="14.14" duration="20.50" routeLength="399.89" waitingTime="0.00" waitingCount="0" stopTime="0.00" timeLoss="0.03" rerouteNo="0" devices="tripinfo_car_20" vType="typecar" speedFactor="1.02" vaporized=""/>
    <tripinfo id="car_21" depart="125.50" departLane="right1_0" departPos="0.11" departSpeed="0.00" departDelay="0.00" arrival="146.00" arrivalLane="right2_0" arrivalPos="10.00" arrivalSpeed="14.03" duration="20.50" routeLength="399.89" waitingTime="0.00" waitingCount="0" stopTime="0.00" timeLoss="0.03" rerouteNo="0" devices="tripinfo_car_21" vType="typecar" speedFactor="1.01" vaporized=""/>
    <tripinfo id="car_22" depart="133.70" departLane="right1_0" departPos="0.11" departSpeed="0.00" departDelay="0.00" arrival="154.70" arrivalLane="right2_0" arrivalPos="10.00" arrivalSpeed="13.54" duration="21.00" routeLength="399.89" waitingTime="0.00" waitingCount="0" stopTime="0.00" timeLoss="0.03" rerouteNo="0" devices="tripinfo_car_22" vType="typecar" speedFactor="0.98" vaporized=""/>
    <tripinfo id="car_23" depart="135.30" departLane="right1_0" departPos="0.11" departSpeed="0.00" departDelay="0.00" arrival="158.40" arrivalLane="right2_0" arrivalPos="10.00" arrivalSpeed="12.36" duration="23.10" routeLength="399.89" waitingTime="0.00" waitingCount="0" stopTime="0.00" timeLoss="0.04" rerouteNo="0" devices="tripinfo_car_23" vType="typecar" speedFactor="0.89" vaporized=""/>
    <tripinfo id="car_24" depart="135.90" departLane="right1_0" departPos="0.11" departSpeed="0.00" departDelay="0.00" arrival="160.90" arrivalLane="right2_0" arrivalPos="10.00" arrivalSpeed="11.47" duration="25.00" routeLength="399.89" waitingTime="0.00" waitingCount="0" stopTime="0.00" timeLoss="0.23" rerouteNo="0" devices="tripinfo_car_24" vType="typecar" speedFactor="0.83" vaporized=""/>
    <tripinfo id="car_25" depart="137.40" departLane="right1_0" departPos="0.11" departSpeed="0.00" departDelay="0.00" arrival="162.00" arrivalLane="right2_0" arrivalPos="10.00" arrivalSpeed="12.12" duration="24.60" routeLength="399.89" waitingTime="0.00" waitingCount="0" stopTime="0.00" timeLoss="1.12" rerouteNo="0" devices="tripinfo_car_25" vType="typecar" speedFactor="0.87" vaporized=""/>
    <tripinfo id="car_26" depart="146.50" departLane="right1_0" departPos="0.11" departSpeed="0.00" departDelay="0.00" arrival="168.80" arrivalLane="right2_0" arrivalPos="10.00" arrivalSpeed="12.74" duration="22.30" routeLength="399.89" waitingTime="0.00" waitingCount="0" stopTime="0.00" timeLoss="0.03" rerouteNo="0" devices="tripinfo_car_26" vType="typecar" speedFactor="0.92" vaporized=""/>
    <tripinfo id="car_27" depart="162.70" departLane="right1_0" departPos="0.11" departSpeed="0.00" departDelay="0.00" arrival="184.30" arrivalLane="right2_0" arrivalPos="10.00" arrivalSpeed="13.18" duration="21.60" routeLength="399.89" waitingTime="0.00" waitingCount="0" stopTime="0.00" timeLoss="0.04" rerouteNo="0" devices="tripinfo_car_27" vType="typecar" speedFactor="0.95" vaporized=""/>
    <tripinfo id="car_28" depart="172.10" departLane="right1_0" departPos="0.11" departSpeed="0.00" departDelay="0.00" arrival="192.40" arrivalLane="right2_0" arrivalPos="10.00" arrivalSpeed="15.72" duration="20.30" routeLength="399.89" waitingTime="0.00" waitingCount="0" stopTime="0.00" timeLoss="0.02" rerouteNo="0" devices="tripinfo_car_28" vType="typecar" speedFactor="1.13" vaporized=""/>
    <tripinfo id="car_29" depart="179.70" departLane="right1_0" departPos="0.11" departSpeed="0.00" departDelay="0.00" arrival="201.70" arrivalLane="right2_0" arrivalPos="10.00" arrivalSpeed="12.94" duration="22.00" routeLength="399.89" waitingTime="0.00" waitingCount="0" stopTime="0.00" timeLoss="0.05" rerouteNo="0" devices="tripinfo_car_29" vType="typecar" speedFactor="0.93" vaporized=""/>
    <tripinfo id="car_30" depart="200.50" departLane="right1_0" departPos="0.11" departSpeed="0.00" departDelay="0.00" arrival="220.80" arrivalLane="right2_0" arrivalPos="10.00" arrivalSpeed="16.37" duration="20.30" routeLength="399.89" waitingTime="0.00" waitingCount="0" stopTime="0.00" timeLoss="0.02" rerouteNo="0" devices="tripinfo_car_30" vType="typecar" speedFactor="1.18" vaporized=""/>
    <tripinfo id="car_31" depart="227.20" departLane="right1_0" departPos="0.11" departSpeed="0.00" departDelay="0.00" arrival="247.50" arrivalLane="right2_0" arrivalPos="10.00" arrivalSpeed="16.04" duration="20.30" routeLength="399.89" waitingTime="0.00" waitingCount="0" stopTime="0.00" timeLoss="0.02" rerouteNo="0" devices="tripinfo_car_31" vType="typecar" speedFactor="1.15" vaporized=""/>
    <tripinfo id="car_32" depart="227.30" departLane="right1_0" departPos="0.11" departSpeed="0.00" departDelay="0.00" arrival="248.70" arrivalLane="right2_0" arrivalPos="10.00" arrivalSpeed="13.96" duration="21.40" routeLength="399.89" waitingTime="0.00" waitingCount="0" stopTime="0.00" timeLoss="0.87" rerouteNo="0" devices="tripinfo_car_32" vType="typecar" speedFactor="1.01" vaporized=""/>
    <tripinfo id="car_33" depart="253.00" departLane="right1_0" departPos="0.11" departSpeed="0.00" departDelay="0.00" arrival="273.30" arrivalLane="right2_0" arrivalPos="10.00" arrivalSpeed="16.28" duration="20.30" routeLength="399.89" waitingTime="0.00" waitingCount="0" stopTime="0.00" timeLoss="0.02" rerouteNo="0" devices="tripinfo_car_33" vType="typecar" speedFactor="1.17" vaporized=""/>
    <tripinfo id="car_34" depart="271.30" departLane="right1_0" departPos="0.11" departSpeed="0.00" departDelay="0.00" arrival="291.90" arrivalLane="right2_0" arrivalPos="10.00" arrivalSpeed="13.82" duration="20.60" routeLength="399.89" waitingTime="0.00" waitingCount="0" stopTime="0.00" timeLoss="0.03" rerouteNo="0" devices="tripinfo_car_34" vType="typecar" speedFactor="0.99" vaporized=""/>
    <tripinfo id="car_35" depart="272.20" departLane="right1_0" departPos="0.11" departSpeed="0.00" departDelay="0.00" arrival="293.00" arrivalLane="right2_0" arrivalPos="10.00" arrivalSpeed="14.16" duration="20.80" routeLength="399.89" waitingTime="0.00" waitingCount="0" stopTime="0.00" timeLoss="0.31" rerouteNo="0" devices="tripinfo_car_35" vType="typecar" speedFactor="1.02" vaporized=""/>
    <tripinfo id="car_36" depart="276.10" departLane="right1_0" departPos="0.11" departSpeed="0.00" departDelay="0.00" arrival="297.20" arrivalLane="right2_0" arrivalPos="10.00" arrivalSpeed="13.52" duration="21.10" routeLength="399.89" waitingTime="0.00" waitingCount="0" stopTime="0.00" timeLoss="0.06" rerouteNo="0" devices="tripinfo_car_36" vType="typecar" speedFactor="0.97" vaporized=""/>
    <tripinfo id="car_37" depart="288.20" departLane="right1_0" departPos="0.11" departSpeed="0.00" departDelay="0.00" arrival="308.50" arrivalLane="right2_0" arrivalPos="10.00" arrivalSpeed="16.39" duration="20.30" routeLength="399.89" waitingTime="0.00" waitingCount="0" stopTime="0.00" timeLoss="0.02" rerouteNo="0" devices="tripinfo_car_37" vType="typecar" speedFactor="1.18" vaporized=""/>
    <tripinfo id="car_38" depart="290.20" departLane="right1_0" departPos="0.11" departSpeed="0.00" departDelay="0.00" arrival="310.60" arrivalLane="right2_0" arrivalPos="10.00" arrivalSpeed="15.31" duration="20.40" routeLength="399.89" waitingTime="0.00" waitingCount="0" stopTime="0.00" timeLoss="0.02" rerouteNo="0" devices="tripinfo_car_38" vType="typecar" speedFactor="1.10" vaporized=""/>
    <tripinfo id="car_39" depart="319.90" departLane="right1_0" departPos="0.11" departSpeed="0.00" departDelay="0.00" arrival="342.60" arrivalLane="right2_0" arrivalPos="10.00" arrivalSpeed="12.51" duration="22.70" routeLength="399.89" waitingTime="0.00" waitingCount="0" stopTime="0.00" timeLoss="0.04" rerouteNo="0" devices="tripinfo_car_39" vType="typecar" speedFactor="0.90" vaporized=""/>
    <tripinfo id="car_40" depart="324.80" departLane="right1_0" departPos="0.11" departSpeed="0.00" departDelay="0.00" arrival="345.20" arrivalLane="right2_0" arrivalPos="10.00" arrivalSpeed="14.31" duration="20.40" routeLength="399.89" waitingTime="0.00" waitingCount="0" stopTime="0.00" timeLoss="0.04" rerouteNo="0" devices="tripinfo_car_40" vType="typecar" speedFactor="1.03" vaporized=""/>
    <tripinfo id="car_41" depart="340.30" departLane="right1_0" departPos="0.11" departSpeed="0.00" departDelay="0.00" arrival="361.70" arrivalLane="right2_0" arrivalPos="10.00" arrivalSpeed="13.29" duration="21.40" routeLength="399.89" waitingTime="0.00" waitingCount="0" stopTime="0.00" timeLoss="0.03" rerouteNo="0" devices="tripinfo_car_41" vType="typecar" speedFactor="0.96" vaporized=""/>
    <tripinfo id="car_42" depart="357.50" departLane="right1_0" departPos="0.11" departSpeed="0.00" departDelay="0.00" arrival="377.90" arrivalLane="right2_0" arrivalPos="10.00" arrivalSpeed="15.17" duration="20.40" routeLength="399.89" waitingTime="0.00" waitingCount="0" stopTime="0.00" timeLoss="0.02" rerouteNo="0" devices="tripinfo_car_42" vType="typecar" speedFactor="1.09" vaporized=""/>
    <tripinfo id="car_43" depart="400.10" departLane="right1_0" departPos="0.11" departSpeed="0.00" departDelay="0.00" arrival="420.50" arrivalLane="right2_0" arrivalPos="10.00" arrivalSpeed="14.41" duration="20.40" routeLength="399.89" waitingTime="0.00" waitingCount="0" stopTime="0.00" timeLoss="0.04" rerouteNo="0" devices="tripinfo_car_43" vType="typecar" speedFactor="1.04" vaporized=""/>
    <tripinfo id="car_44" depart="404.40" departLane="right1_0" departPos="0.11" departSpeed="0.00" departDelay="0.00" arrival="424.80" arrivalLane="right2_0" arrivalPos="10.00" arrivalSpeed="14.49" duration="20.40" routeLength="399.89" waitingTime="0.00" waitingCount="0" stopTime="0.00" timeLoss="0.04" rerouteNo="0" devices="tripinfo_car_44" vType="typecar" speedFactor="1.04" vaporized=""/>
    <tripinfo id="car_45" depart="406.50" departLane="right1_0" departPos="0.11" departSpeed="0.00" departDelay="0.00" arrival="426.90" arrivalLane="right2_0" arrivalPos="10.00" arrivalSpeed="15.11" duration="20.40" routeLength="399.89" waitingTime="0.00" waitingCount="0" stopTime="0.00" timeLoss="0.02" rerouteNo="0" devices="tripinfo_car_45" vType="typecar" speedFactor="1.09" vaporized=""/>
    <tripinfo id="car_46" depart="408.20" departLane="right1_0" departPos="0.11" departSpeed="0.00" departDelay="0.00" arrival="428.80" arrivalLane="right2_0" arrivalPos="10.00" arrivalSpeed="13.85" duration="20.60" routeLength="399.89" waitingTime="0.00" waitingCount="0" stopTime="0.00" timeLoss="0.04" rerouteNo="0" devices="tripinfo_car_46" vType="typecar" speedFactor="1.00" vaporized=""/>
    <tripinfo id="car_47" depart="414.30" departLane="right1_0" departPos="0.11" departSpeed="0.00" departDelay="0.00" arrival="437.00" arrivalLane="right2_0" arrivalPos="10.00" arrivalSpeed="12.51" duration="22.70" routeLength="399.89" waitingTime="0.00" waitingCount="0" stopTime="0.00" timeLoss="0.04" rerouteNo="0" devices="tripinfo_car_47" vType="typecar" speedFactor="0.90" vaporized=""/>
    <tripinfo id="car_48" depart="418.10" departLane="right1_0" departPos="0.11" departSpeed="0.00" departDelay="0.00" arrival="441.50" arrivalLane="right2_0" arrivalPos="10.00" arrivalSpeed="12.18" duration="23.40" routeLength="399.89" waitingTime="0.00" waitingCount="0" stopTime="0.00" timeLoss="0.03" rerouteNo="0" devices="tripinfo_car_48" vType="typecar" speedFactor="0.88" vaporized=""/>
    <tripinfo id="car_49" depart="449.20" departLane="right1_0" departPos="0.11" departSpeed="0.00" departDelay="0.00" arrival="473.30" arrivalLane="right2_0" arrivalPos="10.00" arrivalSpeed="11.81" duration="24.10" routeLength="399.89" waitingTime="0.00" waitingCount="0" stopTime="0.00" timeLoss="0.03" rerouteNo="0" devices="tripinfo_car_49" vType="typecar" speedFactor="0.85" vaporized=""/>
    <tripinfo id="car_50" depart="452.80" departLane="right1_0" departPos="0.11" departSpeed="0.00" departDelay="0.00" arrival="476.80" arrivalLane="right2_0" arrivalPos="10.00" arrivalSpeed="11.87" duration="24.00" routeLength="399.89" waitingTime="0.00" waitingCount="0" stopTime="0.00" timeLoss="0.05" rerouteNo="0" devices="tripinfo_car_50" vType="typecar" speedFactor="0.85" vaporized=""/>
    <tripinfo id="car_51" depart="455.10" departLane="right1_0" departPos="0.11" departSpeed="0.00" departDelay="0.00" arrival="477.60" arrivalLane="right2_0" arrivalPos="10.00" arrivalSpeed="16.24" duration="22.50" routeLength="399.89" waitingTime="0.00" waitingCount="0" stopTime="0.00" timeLoss="2.25" rerouteNo="0" devices="tripinfo_car_51" vType="typecar" speedFactor="1.17" vaporized=""/>
    <tripinfo id="car_52" depart="470.10" departLane="right1_0" departPos="0.11" departSpeed="0.00" departDelay="0.00" arrival="490.60" arrivalLane="right2_0" arrivalPos="10.00" arrivalSpeed="14.12" duration="20.50" routeLength="399.89" waitingTime="0.00" waitingCount="0" stopTime="0.00" timeLoss="0.03" rerouteNo="0" devices="tripinfo_car_52" vType="typecar" speedFactor="1.02" vaporized=""/>
    <tripinfo id="car_53" depart="474.10" departLane="right1_0" departPos="0.11" departSpeed="0.00" departDelay="0.00" arrival="494.50" arrivalLane="right2_0" arrivalPos="10.00" arrivalSpeed="15.22" duration="20.40" routeLength="399.89" waitingTime="0.00" waitingCount="0" stopTime="0.00" timeLoss="0.02" rerouteNo="0" devices="tripinfo_car_53" vType="typecar" speedFactor="1.10" vaporized=""/>
    <tripinfo id="car_54" depart="478.40" departLane="right1_0" departPos="0.11" departSpeed="0.00" departDelay="0.00" arrival="498.90" arrivalLane="right2_0" arrivalPos="10.00" arrivalSpeed="13.93" duration="20.50" routeLength="399.89" waitingTime="0.00" waitingCount="0" stopTime="0.00" timeLoss="0.03" rerouteNo="0" devices="tripinfo_car_54" vType="typecar" speedFactor="1.00" vaporized=""/>
    <tripinfo id="car_55" depart="486.40" departLane="right1_0" departPos="0.11" departSpeed="0.00" departDelay="0.00" arrival="507.00" arrivalLane="right2_0" arrivalPos="10.00" arrivalSpeed="13.83" duration="20.60" routeLength="399.89" waitingTime="0.00" waitingCount="0" stopTime="0.00" timeLoss="0.03" rerouteNo="0" devices="tripinfo_car_55" vType="typecar" speedFactor="1.00" vaporized=""/>
    <tripinfo id="car_56" depart="489.10" departLane="right1_0" departPos="0.11" departSpeed="0.00" departDelay="0.00" arrival="511.90" arrivalLane="right2_0" arrivalPos="10.00" arrivalSpeed="12.49" duration="22.80" routeLength="399.89" waitingTime="0.00" waitingCount="0" stopTime="0.00" timeLoss="0.03" rerouteNo="0" devices="tripinfo_car_56" vType="typecar" speedFactor="0.90" vaporized=""/>
    <tripinfo id="car_57" depart="499.80" departLane="right1_0" departPos="0.11" departSpeed="0.00" departDelay="0.00" arrival="520.10" arrivalLane="right2_0" arrivalPos="10.00" arrivalSpeed="15.87" duration="20.30" routeLength="399.89" waitingTime="0.00" waitingCount="0" stopTime="0.00" timeLoss="0.02" rerouteNo="0" devices="tripinfo_car_57" vType="typecar" speedFactor="1.14" vaporized=""/>
    <tripinfo id="car_58" depart="501.40" departLane="right1_0" departPos="0.11" departSpeed="0.00" departDelay="0.00" arrival="521.80" arrivalLane="right2_0" arrivalPos="10.00" arrivalSpeed="14.22" duration="20.40" routeLength="399.89" waitingTime="0.00" waitingCount="0" stopTime="0.00" timeLoss="0.03" rerouteNo="0" devices="tripinfo_car_58" vType="typecar" speedFactor="1.02" vaporized=""/>
    <tripinfo id="car_59" depart="508.30" departLane="right1_0" departPos="0.11" departSpeed="0.00" departDelay="0.00" arrival="529.50" arrivalLane="right2_0" arrivalPos="10.00" arrivalSpeed="13.47" duration="21.20" routeLength="399.89" waitingTime="0.00" waitingCount="0" stopTime="0.00" timeLoss="0.03" rerouteNo="0" devices="tripinfo_car_59" vType="typecar" speedFactor="0.97" vaporized=""/>
    <tripinfo id="car_60" depart="515.30" departLane="right1_0" departPos="0.11" departSpeed="0.00" departDelay="0.00" arrival="535.70" arrivalLane="right2_0" arrivalPos="10.00" arrivalSpeed="15.04" duration="20.40" routeLength="399.89" waitingTime="0.00" waitingCount="0" stopTime="0.00" timeLoss="0.03" rerouteNo="0" devices="tripinfo_car_60" vType="typecar" speedFactor="1.08" vaporized=""/>
    <tripinfo id="car_61" depart="527.80" departLane="right1_0" departPos="0.11" departSpeed="0.00" departDelay="0.00" arrival="548.20" arrivalLane="right2_0" arrivalPos="10.00" arrivalSpeed="15.55" duration="20.40" routeLength="399.89" waitingTime="0.00" waitingCount="0" stopTime="0.00" timeLoss="0.02" rerouteNo="0" devices="tripinfo_car_61" vType="typecar" speedFactor="1.12" vaporized=""/>
    <tripinfo id="car_62" depart="545.30" departLane="right1_0" departPos="0.11" departSpeed="0.00" departDelay="0.00" arrival="565.80" arrivalLane="right2_0" arrivalPos="10.00" arrivalSpeed="14.11" duration="20.50" routeLength="399.89" waitingTime="0.00" waitingCount="0" stopTime="0.00" timeLoss="0.03" rerouteNo="0" devices="tripinfo_car_62" vType="typecar" speedFactor="1.02" vaporized=""/>
    <tripinfo id="car_63" depart="565.50" departLane="right1_0" departPos="0.11" departSpeed="0.00" departDelay="0.00" arrival="586.30" arrivalLane="right2_0" arrivalPos="10.00" arrivalSpeed="13.71" duration="20.80" routeLength="399.89" waitingTime="0.00" waitingCount="0" stopTime="0.00" timeLoss="0.03" rerouteNo="0" devices="tripinfo_car_63" vType="typecar" speedFactor="0.99" vaporized=""/>
    <tripinfo id="car_64" depart="572.00" departLane="right1_0" departPos="0.11" departSpeed="0.00" departDelay="0.00" arrival="593.90" arrivalLane="right2_0" arrivalPos="10.00" arrivalSpeed="13.02" duration="21.90" routeLength="399.89" waitingTime="0.00" waitingCount="0" stopTime="0.00" timeLoss="0.03" rerouteNo="0" devices="tripinfo_car_64" vType="typecar" speedFactor="0.94" vaporized=""/>
    <tripinfo id="car_65" depart="588.90" departLane="right1_0" departPos="0.11" departSpeed="0.00" departDelay="0.00" arrival="612.20" arrivalLane="right2_0" arrivalPos="10.00" arrivalSpeed="12.26" duration="23.30" routeLength="399.89" waitingTime="0.00" waitingCount="0" stopTime="0.00" timeLoss="0.06" rerouteNo="0" devices="tripinfo_car_65" vType="typecar" speedFactor="0.88" vaporized=""/>
    <tripinfo id="car_66" depart="592.40" departLane="right1_0" departPos="0.11" departSpeed="0.00" departDelay="0.00" arrival="615.00" arrivalLane="right2_0" arrivalPos="10.00" arrivalSpeed="12.60" duration="22.60" routeLength="399.89" waitingTime="0.00" waitingCount="0" stopTime="0.00" timeLoss="0.03" rerouteNo="0" devices="tripinfo_car_66" vType="typecar" speedFactor="0.91" vaporized=""/>
    <tripinfo id="car_67" depart="593.00" departLane="right1_0" departPos="0.11" departSpeed="0.00" departDelay="0.00" arrival="616.10" arrivalLane="right2_0" arrivalPos="10.00" arrivalSpeed="12.70" duration="23.10" routeLength="399.89" waitingTime="0.00" waitingCount="0" stopTime="0.00" timeLoss="0.69" rerouteNo="0" devices="tripinfo_car_67" vType="typecar" speedFactor="0.91" vaporized=""/>
    <tripinfo id="car_68" depart="601.10" departLane="right1_0" departPos="0.11" departSpeed="0.00" departDelay="0.00" arrival="621.50" arrivalLane="right2_0" arrivalPos="10.00" arrivalSpeed="14.44" duration="20.40" routeLength="399.89" waitingTime="0.00" waitingCount="0" stopTime="0.00" timeLoss="0.04" rerouteNo="0" devices="tripinfo_car_68" vType="typecar" speedFactor="1.04" vaporized=""/>
    <tripinfo id="car_69" depart="601.80" departLane="right1_0" departPos="0.11" departSpeed="0.00" departDelay="0.00" arrival="622.60" arrivalLane="right2_0" arrivalPos="10.00" arrivalSpeed="14.20" duration="20.80" routeLength="399.89" waitingTime="0.00" waitingCount="0" stopTime="0.00" timeLoss="0.37" rerouteNo="0" devices="tripinfo_car_69" vType="typecar" speedFactor="1.02" vaporized=""/>
    <tripinfo id="car_70" depart="635.40" departLane="right1_0" departPos="0.11" departSpeed="0.00" departDelay="0.00" arrival="655.80" arrivalLane="right2_0" arrivalPos="10.00" arrivalSpeed="14.21" duration="20.40" routeLength="399.89" waitingTime="0.00" waitingCount="0" stopTime="0.00" timeLoss="0.03" rerouteNo="0" devices="tripinfo_car_70" vType="typecar" speedFactor="1.02" vaporized=""/>
    <tripinfo id="car_71" depart="638.70" departLane="right1_0" departPos="0.11" departSpeed="0.00" departDelay="0.00" arrival="659.80" arrivalLane="right2_0" arrivalPos="10.00" arrivalSpeed="13.51" duration="21.10" routeLength="399.89" waitingTime="0.00" waitingCount="0" stopTime="0.00" timeLoss="0.05" rerouteNo="0" devices="tripinfo_car_71" vType="typecar" speedFactor="0.97" vaporized=""/>
    <tripinfo id="car_72" depart="661.20" departLane="right1_0" departPos="0.11" departSpeed="0.00" departDelay="0.00" arrival="683.00" arrivalLane="right2_0" arrivalPos="10.00" arrivalSpeed="13.06" duration="21.80" routeLength="399.89" waitingTime="0.00" waitingCount="0" stopTime="0.00" timeLoss="0.05" rerouteNo="0" devices="tripinfo_car_72" vType="typecar" speedFactor="0.94" vaporized=""/>